integrator              = steep  ; steep | md | md-vv
nsteps                  = 40960
emtol                   = 100.0  ; steep option kJ mol-1 nm-1, converged when the maximum force is smaller
emstep                  = 0.01   ; steep option nm, initial step-size
pbc                     = xy
nwall                   = 2
wall-atomtype           = c3 c3
wall-type               = 10-4
wall-density = 38 38; sqrt(2)/sigma^(-3)
wall-r-linpot           = 0.3
wall-ewald-zfac = 3
ewald-geometry          = 3dc


coulombtype             = PME    ; Cut-off | PME | P3M-AD
coulomb-modifier        = None
rcoulomb                = 1.2
vdwtype                 = Cut-off   ; Cut-off | PME | P3M-AD
vdw-modifier            = None
rvdw                    = 1.2
constraints             = all-bonds          ; none | all-bonds | h-bonds
constraint-algorithm    = lincs
nstxout                 = 10
nstvout                 = 10
nstenergy               = 10
nstxout-compressed      = 0
compressed-x-grps       = 
nstlist                 = 10
ns-type                 = grid
cutoff-scheme           = Verlet
verlet-buffer-tolerance = -1
rlist                   = 1.4
fourierspacing          = 0.12
pme-order               = 6
ewald-rtol              = 1e-8
DispCorr                = EnerPres
lincs-order             = 4
lincs-iter              = 1
continuation            = no
define                  = 
print-nose-hoover-chain-variables = yes

nstcalcenergy           = 10
