gen-vel                 = yes
gen-seed                = 12345
gen-temp                = 200
comm-mode               = Linear ; Linear
comm-grps               = system ; HMP TMP SOL
nstcomm                 = 50
integrator              = md     ; steep | md | md-vv
dt                      = 0.001  ; ps
nsteps                  = 200000
pbc                     = xy
nwall                   = 2
wall-atomtype           = c3 c3
wall-type               = 10-4
wall-density = 38 38; sqrt(2)/sigma^(-3)
wall-r-linpot           = 0.3
wall-ewald-zfac = 3
ewald-geometry          = 3dc

coulombtype             = PME    ; Cut-off | PME | P3M-AD
coulomb-modifier        = None
rcoulomb                = 1.2
vdwtype                 = Cut-off   ; Cut-off | PME | P3M-AD
vdw-modifier            = None
rvdw                    = 1.2
tcoupl                  = v-rescale   ;  berendsen | nose-hoover | v-rescale
tc-grps                 = System
tau-t                   = 0.1 ; 1.0;N-H
ref-t                   = 300 ;200
nsttcouple              = 10 
nh-chain-length         =  3
pcoupl                  = no  ; no | Berendsen | Parrinello-Rahman
pcoupltype              = isotropic           ; isotropic | semiisotropic (x/y vs z) | anisotropic
tau-p                   = 1.0
compressibility         = 4.5e-5
ref-p                   = 5.0                 ; [bar]
nstpcouple              = -1
refcoord-scaling        = no
constraints             = all-bonds           ; all-bonds | h-bonds
constraint-algorithm    = LINCS
nstxout                 = 1000
nstvout                 = 1000
nstenergy               = 1000
nstxout-compressed      = 0
compressed-x-grps       = 
nstlist                 = 10
ns-type                 = grid
cutoff-scheme           = Verlet
verlet-buffer-tolerance = -1
rlist                   = 1.4
fourierspacing          = 0.12
pme-order               = 6
ewald-rtol              = 1e-8
DispCorr                = EnerPres
lincs-order             = 4
lincs-iter              = 1
continuation            = no
define                  = 
print-nose-hoover-chain-variables = yes

nstcalcenergy           = 10
nstlog                  = 1000
